 Q-Chem 4.4, Q-Chem, Inc., Pleasanton, CA (2016)
 Q-Chem 4.4.2 for Intel X86 Linux

User input:
--------------------------------------------------------------
$molecule
0  1
C     0.670518    0.000000    0.000000
H     1.241372    0.927754    0.000000
H     1.241372   -0.927754    0.000000
C    -0.670518    0.000000    0.000000
H    -1.241372   -0.927754    0.000000
H    -1.241372    0.927754    0.000000
C       1.3862000000     0.0000000000    2.5
C       0.6931000000     1.2004844147    2.5
C      -0.6931000000     1.2004844147    2.5
C      -1.3862000000     0.0000000000    2.5
C      -0.6931000000    -1.2004844147    2.5
C       0.6931000000    -1.2004844147    2.5
H       2.4618000000     0.0000000000    2.5
H       1.2309000000     2.1319813390    2.5
H      -1.2309000000     2.1319813390    2.5
H      -2.4618000000     0.0000000000    2.5
H      -1.2309000000    -2.1319813390    2.5
H       1.2309000000    -2.1319813390    2.5
$end

$rem
basis 		6-31G
METHOD 			CIS
CIS_N_ROOTS       10
CIS_SINGLETS      true
CIS_TRIPLETS      false
STS_FCD           true
STS_FED			 true
STS_DONOR         1-6
STS_ACCEPTOR      7-18
POP_MULLIKEN      -1
STS_MOM			 true
CIS_MULLIKEN      2
$end

--------------------------------------------------------------

             Standard Nuclear Orientation (Angstroms)
    I     Atom           X                Y                Z
 ----------------------------------------------------------------
    1      C      -0.6705180000     0.0000000000    -1.8103448276
    2      H      -1.2413720000    -0.9277540000    -1.8103448276
    3      H      -1.2413720000     0.9277540000    -1.8103448276
    4      C       0.6705180000     0.0000000000    -1.8103448276
    5      H       1.2413720000     0.9277540000    -1.8103448276
    6      H       1.2413720000    -0.9277540000    -1.8103448276
    7      C      -1.3862000000     0.0000000000     0.6896551724
    8      C      -0.6931000000    -1.2004844147     0.6896551724
    9      C       0.6931000000    -1.2004844147     0.6896551724
   10      C       1.3862000000     0.0000000000     0.6896551724
   11      C       0.6931000000     1.2004844147     0.6896551724
   12      C      -0.6931000000     1.2004844147     0.6896551724
   13      H      -2.4618000000     0.0000000000     0.6896551724
   14      H      -1.2309000000    -2.1319813390     0.6896551724
   15      H       1.2309000000    -2.1319813390     0.6896551724
   16      H       2.4618000000     0.0000000000     0.6896551724
   17      H       1.2309000000     2.1319813390     0.6896551724
   18      H      -1.2309000000     2.1319813390     0.6896551724
 ----------------------------------------------------------------

   12    -308.5750131802      2.80E-09 Convergence criterion met
 Total energy in the final basis set = -308.5750131802

               CIS Excitation Energies
 ---------------------------------------------------

 Excited state   1: excitation energy (eV) =    6.4781
    Total energy for state   1:   -308.336948596266
    Multiplicity: Singlet
    Trans. Mom.:  0.0000 X   0.1525 Y   0.0000 Z
    Strength   :     0.0036918512
    D( 27) --> V(  2) amplitude = -0.6464
    D( 28) --> V(  1) amplitude =  0.7593

 Excited state   2: excitation energy (eV) =    6.6917
    Total energy for state   2:   -308.329096649179
    Multiplicity: Singlet
    Trans. Mom.:  0.0371 X   0.0000 Y   0.0000 Z
    Strength   :     0.0002260316
    D( 27) --> V(  1) amplitude =  0.7012
    D( 28) --> V(  2) amplitude =  0.6818

 Excited state   3: excitation energy (eV) =    7.2418
    Total energy for state   3:   -308.308881730298
    Multiplicity: Singlet
    Trans. Mom.:  0.0000 X   0.0000 Y  -0.1434 Z
    Strength   :     0.0036486851
    D( 29) --> V(  1) amplitude =  0.9847

 Excited state   4: excitation energy (eV) =    7.5708
    Total energy for state   4:   -308.296790354092
    Multiplicity: Singlet
    Trans. Mom.:  0.0000 X   0.0000 Y   0.0000 Z
    Strength   :     0.0000000000
    D( 29) --> V(  2) amplitude =  0.9901

 Excited state   5: excitation energy (eV) =    7.7059
    Total energy for state   5:   -308.291826485924
    Multiplicity: Singlet
    Trans. Mom.:  0.2157 X   0.0000 Y   0.0000 Z
    Strength   :     0.0087830822
    D( 27) --> V(  1) amplitude =  0.4431
    D( 28) --> V(  2) amplitude = -0.4501
    D( 29) --> V(  3) amplitude =  0.7402

 Excited state   6: excitation energy (eV) =    8.4901
    Total energy for state   6:   -308.263008891950
    Multiplicity: Singlet
    Trans. Mom.:  0.0000 X   1.9827 Y   0.0000 Z
    Strength   :     0.8177169135
    D( 27) --> V(  2) amplitude =  0.7344
    D( 28) --> V(  1) amplitude =  0.6237

 Excited state   7: excitation energy (eV) =    9.2702
    Total energy for state   7:   -308.234340500555
    Multiplicity: Singlet
    Trans. Mom.: -2.5756 X   0.0000 Y   0.0000 Z
    Strength   :     1.5066661637
    D( 27) --> V(  1) amplitude = -0.5059
    D( 28) --> V(  2) amplitude =  0.5217
    D( 29) --> V(  3) amplitude =  0.6107

 Excited state   8: excitation energy (eV) =    9.3889
    Total energy for state   8:   -308.229977739672
    Multiplicity: Singlet
    Trans. Mom.:  0.0000 X   0.0640 Y   0.0000 Z
    Strength   :     0.0009410040
    D( 28) --> V(  4) amplitude = -0.6341
    D( 29) --> V(  5) amplitude = -0.5917
    D( 29) --> V(  8) amplitude =  0.4216

 Excited state   9: excitation energy (eV) =    9.5128
    Total energy for state   9:   -308.225424475986
    Multiplicity: Singlet
    Trans. Mom.:  0.0000 X   0.0000 Y   0.0000 Z
    Strength   :     0.0000000000
    D( 24) --> V(  2) amplitude = -0.4742
    D( 25) --> V(  1) amplitude = -0.7876

 Excited state  10: excitation energy (eV) =    9.5382
    Total energy for state  10:   -308.224489016862
    Multiplicity: Singlet
    Trans. Mom.:  0.0000 X  -0.1126 Y   0.0000 Z
    Strength   :     0.0029638527
    D( 26) --> V(  3) amplitude =  0.2163
    D( 28) --> V(  4) amplitude =  0.6932
    D( 29) --> V(  5) amplitude = -0.3437
    D( 29) --> V(  8) amplitude =  0.5433

 ---------------------------------------------------

             Orbital Energies (a.u.) and Symmetries
 --------------------------------------------------------------

 Alpha MOs, Restricted
 -- Occupied --
-11.236 -11.236 -11.232 -11.232 -11.230 -11.230 -11.208 -11.206
  1 A1    1 B1    1 B2    2 A1    1 A2    2 B1    3 A1    3 B1
 -1.161  -1.021  -1.018  -1.010  -0.825  -0.825  -0.771  -0.715
  4 A1    4 B1    2 B2    5 A1    2 A2    6 A1    5 B1    7 A1
 -0.640  -0.624  -0.616  -0.590  -0.588  -0.565  -0.514  -0.488
  6 B1    3 B2    4 B2    7 B1    5 B2    8 A1    9 A1   10 A1
 -0.488  -0.481  -0.335  -0.332  -0.321
  3 A2    4 A2    8 B1    6 B2   11 A1

 Beta MOs, Restricted
 -- Occupied --
-11.236 -11.236 -11.232 -11.232 -11.230 -11.230 -11.208 -11.206
  1 A1    1 B1    1 B2    2 A1    1 A2    2 B1    3 A1    3 B1
 -1.161  -1.021  -1.018  -1.010  -0.825  -0.825  -0.771  -0.715
  4 A1    4 B1    2 B2    5 A1    2 A2    6 A1    5 B1    7 A1
 -0.640  -0.624  -0.616  -0.590  -0.588  -0.565  -0.514  -0.488
  6 B1    3 B2    4 B2    7 B1    5 B2    8 A1    9 A1   10 A1
 -0.488  -0.481  -0.335  -0.332  -0.321
  3 A2    4 A2    8 B1    6 B2   11 A1

          Ground-State Mulliken Net Atomic Charges

     Atom                 Charge (a.u.)
  ----------------------------------------
      1 C                    -0.329058
      2 H                     0.155132
      3 H                     0.155132
      4 C                    -0.329058
      5 H                     0.155132
      6 H                     0.155132
      7 C                    -0.190324
      8 C                    -0.192054
      9 C                    -0.192054
     10 C                    -0.190324
     11 C                    -0.192054
     12 C                    -0.192054
     13 H                     0.199713
     14 H                     0.196757
     15 H                     0.196757
     16 H                     0.199713
     17 H                     0.196757
     18 H                     0.196757
  ----------------------------------------
  Sum of atomic charges =     0.000000

                    Cartesian Multipole Moments
 -----------------------------------------------------------------
    Charge (ESU x 10^10)
                 0.0000
    Dipole Moment (Debye)
         X       0.0000      Y       0.0000      Z       0.4508
       Tot       0.4508
    Quadrupole Moments (Debye-Ang)
        XX     -44.0946     XY       0.0000     YY     -44.5273
        XZ       0.0000     YZ       0.0000     ZZ     -58.4494

 Total job time:  10.89s(wall), 10.88s(cpu)
        *  Thank you very much for using Q-Chem.  Have a nice day.  *
