 Q-Chem 4.4, Q-Chem, Inc., Pleasanton, CA (2016)
 Q-Chem 4.4.2 for Intel X86 Linux

User input:
--------------------------------------------------------------
$molecule
0  1
C     0.670518    0.000000    0.000000
H     1.241372    0.927754    0.000000
H     1.241372   -0.927754    0.000000
C    -0.670518    0.000000    0.000000
H    -1.241372   -0.927754    0.000000
H    -1.241372    0.927754    0.000000
C     0.670518    0.000000    8.500000
H     1.241372    0.927754    8.500000
H     1.241372   -0.927754    8.500000
C    -0.670518    0.000000    8.500000
H    -1.241372   -0.927754    8.500000
H    -1.241372    0.927754    8.500000
$end

$rem
basis 		6-31G
METHOD 			CIS
CIS_N_ROOTS       10
CIS_SINGLETS      true
CIS_TRIPLETS      false
STS_FED           true
STS_DONOR         1-6
STS_ACCEPTOR      7-12
POP_MULLIKEN      -1
STS_MOM			 true
CIS_RELAXED_DENSITY  true
CIS_MULLIKEN	true
$end

--------------------------------------------------------------

             Standard Nuclear Orientation (Angstroms)
    I     Atom           X                Y                Z
 ----------------------------------------------------------------
    1      C      -4.2500000000    -0.6705180000     0.0000000000
    2      H      -4.2500000000    -1.2413720000    -0.9277540000
    3      H      -4.2500000000    -1.2413720000     0.9277540000
    4      C      -4.2500000000     0.6705180000     0.0000000000
    5      H      -4.2500000000     1.2413720000     0.9277540000
    6      H      -4.2500000000     1.2413720000    -0.9277540000
    7      C       4.2500000000    -0.6705180000     0.0000000000
    8      H       4.2500000000    -1.2413720000    -0.9277540000
    9      H       4.2500000000    -1.2413720000     0.9277540000
   10      C       4.2500000000     0.6705180000     0.0000000000
   11      H       4.2500000000     1.2413720000     0.9277540000
   12      H       4.2500000000     1.2413720000    -0.9277540000
 ----------------------------------------------------------------

    9    -156.0065776038      4.16E-09 Convergence criterion met
 Total energy in the final basis set = -156.0065776038

               CIS Excitation Energies
 ---------------------------------------------------

 Excited state   1: excitation energy (eV) =    8.6002
    Total energy for state   1:   -155.690527687384
    Multiplicity: Singlet
    Trans. Mom.:  0.0000 X   0.0000 Y   0.0000 Z
    Strength   :     0.0000000000
    D( 15) --> V(  1) amplitude =  0.6856
    D( 16) --> V(  2) amplitude =  0.6856

 Excited state   2: excitation energy (eV) =    8.6432
    Total energy for state   2:   -155.688944242370
    Multiplicity: Singlet
    Trans. Mom.:  0.0000 X   2.4752 Y   0.0000 Z
    Strength   :     1.2973436027
    D( 15) --> V(  1) amplitude =  0.6854
    D( 16) --> V(  2) amplitude = -0.6854

 Excited state   3: excitation energy (eV) =    9.4484
    Total energy for state   3:   -155.659356066069
    Multiplicity: Singlet
    Trans. Mom.:  0.0000 X   0.0000 Y   0.0000 Z
    Strength   :     0.0000000000
    D( 13) --> V(  1) amplitude = -0.4857
    D( 13) --> V(  2) amplitude = -0.4857
    D( 14) --> V(  1) amplitude = -0.4857
    D( 14) --> V(  2) amplitude =  0.4857

 Excited state   4: excitation energy (eV) =    9.4488
    Total energy for state   4:   -155.659339071149
    Multiplicity: Singlet
    Trans. Mom.:  0.0000 X   0.0000 Y  -0.0012 Z
    Strength   :     0.0000003217
    D( 13) --> V(  1) amplitude = -0.4857
    D( 13) --> V(  2) amplitude =  0.4857
    D( 14) --> V(  1) amplitude = -0.4857
    D( 14) --> V(  2) amplitude = -0.4857

 Excited state   5: excitation energy (eV) =   10.1326
    Total energy for state   5:   -155.634211223782
    Multiplicity: Singlet
    Trans. Mom.: -0.0215 X   0.0000 Y   0.0000 Z
    Strength   :     0.0001151473
    D( 15) --> V(  3) amplitude = -0.4981
    D( 15) --> V(  4) amplitude = -0.4981
    D( 16) --> V(  3) amplitude =  0.4982
    D( 16) --> V(  4) amplitude = -0.4982

 Excited state   6: excitation energy (eV) =   10.1326
    Total energy for state   6:   -155.634210274262
    Multiplicity: Singlet
    Trans. Mom.:  0.0000 X   0.0000 Y   0.0000 Z
    Strength   :     0.0000000000
    D( 15) --> V(  3) amplitude =  0.4982
    D( 15) --> V(  4) amplitude =  0.4982
    D( 16) --> V(  3) amplitude =  0.4981
    D( 16) --> V(  4) amplitude = -0.4981

 Excited state   7: excitation energy (eV) =   10.2958
    Total energy for state   7:   -155.628213350456
    Multiplicity: Singlet
    Trans. Mom.:  0.0000 X   0.0000 Y   0.0000 Z
    Strength   :     0.0000000000
    D( 15) --> V(  5) amplitude = -0.4864
    D( 15) --> V(  6) amplitude =  0.4864
    D( 16) --> V(  5) amplitude =  0.4864
    D( 16) --> V(  6) amplitude =  0.4864

 Excited state   8: excitation energy (eV) =   10.2958
    Total energy for state   8:   -155.628212824765
    Multiplicity: Singlet
    Trans. Mom.:  0.0000 X   0.0000 Y   0.0005 Z
    Strength   :     0.0000000513
    D( 15) --> V(  5) amplitude = -0.4864
    D( 15) --> V(  6) amplitude =  0.4864
    D( 16) --> V(  5) amplitude = -0.4864
    D( 16) --> V(  6) amplitude = -0.4864

 Excited state   9: excitation energy (eV) =   10.3165
    Total energy for state   9:   -155.627451478199
    Multiplicity: Singlet
    Trans. Mom.:  0.0000 X   0.0000 Y   0.0000 Z
    Strength   :     0.0000000000
    D( 11) --> V(  1) amplitude = -0.6815
    D( 12) --> V(  2) amplitude =  0.6815

 Excited state  10: excitation energy (eV) =   10.3171
    Total energy for state  10:   -155.627430152012
    Multiplicity: Singlet
    Trans. Mom.:  0.0000 X  -0.0025 Y   0.0000 Z
    Strength   :     0.0000016319
    D( 11) --> V(  1) amplitude =  0.6815
    D( 12) --> V(  2) amplitude =  0.6815

 Excited state  11: excitation energy (eV) =   11.5565
    Total energy for state  11:   -155.581882659230
    Multiplicity: Singlet
    Trans. Mom.:  0.0000 X   0.0000 Y   0.0000 Z
    Strength   :     0.0000000000
    D( 15) --> V(  7) amplitude =  0.4886
    D( 15) --> V(  8) amplitude =  0.4886
    D( 16) --> V(  7) amplitude = -0.4887
    D( 16) --> V(  8) amplitude =  0.4887

 Excited state  12: excitation energy (eV) =   11.5566
    Total energy for state  12:   -155.581880765579
    Multiplicity: Singlet
    Trans. Mom.:  0.0000 X   0.0002 Y   0.0000 Z
    Strength   :     0.0000000120
    D( 15) --> V(  7) amplitude =  0.4886
    D( 15) --> V(  8) amplitude =  0.4886
    D( 16) --> V(  7) amplitude =  0.4886
    D( 16) --> V(  8) amplitude = -0.4886

 ---------------------------------------------------

             Orbital Energies (a.u.) and Symmetries
 --------------------------------------------------------------
 Warning : Irrep of orbital(   1) could not be determined
 Warning : Irrep of orbital(   2) could not be determined
 Warning : Irrep of orbital(   3) could not be determined
 Warning : Irrep of orbital(   4) could not be determined
 Warning : Irrep of orbital(   5) could not be determined
 Warning : Irrep of orbital(   6) could not be determined
 Warning : Irrep of orbital(   9) could not be determined
 Warning : Irrep of orbital(  10) could not be determined
 Warning : Irrep of orbital(  11) could not be determined
 Warning : Irrep of orbital(  12) could not be determined
 Warning : Irrep of orbital(  15) could not be determined
 Warning : Irrep of orbital(  16) could not be determined
 Warning : Irrep of orbital(  17) could not be determined
 Warning : Irrep of orbital(  18) could not be determined
 Warning : Irrep of orbital(  31) could not be determined
 Warning : Irrep of orbital(  32) could not be determined
 Warning : Irrep of orbital(  35) could not be determined
 Warning : Irrep of orbital(  36) could not be determined

 Alpha MOs, Restricted
 -- Occupied --
-11.235 -11.235 -11.233 -11.233  -1.030  -1.030  -0.787  -0.787
  0 xxx   0 xxx   0 xxx   0 xxx   0 xxx   0 xxx   1 B2u   1 B1g
 -0.637  -0.637  -0.581  -0.581  -0.498  -0.498  -0.370  -0.370
  0 xxx   0 xxx   0 xxx   0 xxx   1 B3g   1 Au    0 xxx   0 xxx

 Beta MOs, Restricted
 -- Occupied --
-11.235 -11.235 -11.233 -11.233  -1.030  -1.030  -0.787  -0.787
  0 xxx   0 xxx   0 xxx   0 xxx   0 xxx   0 xxx   1 B2u   1 B1g
 -0.637  -0.637  -0.581  -0.581  -0.498  -0.498  -0.370  -0.370
  0 xxx   0 xxx   0 xxx   0 xxx   1 B3g   1 Au    0 xxx   0 xxx

          Ground-State Mulliken Net Atomic Charges

     Atom                 Charge (a.u.)
  ----------------------------------------
      1 C                    -0.328572
      2 H                     0.164286
      3 H                     0.164286
      4 C                    -0.328572
      5 H                     0.164286
      6 H                     0.164286
      7 C                    -0.328572
      8 H                     0.164286
      9 H                     0.164286
     10 C                    -0.328572
     11 H                     0.164286
     12 H                     0.164286
  ----------------------------------------
  Sum of atomic charges =     0.000000

                    Cartesian Multipole Moments
 -----------------------------------------------------------------
    Charge (ESU x 10^10)
                 0.0000
    Dipole Moment (Debye)
         X       0.0000      Y       0.0000      Z       0.0000
       Tot       0.0000
    Quadrupole Moments (Debye-Ang)
        XX     -31.3408     XY       0.0000     YY     -24.3220
        XZ       0.0000     YZ       0.0000     ZZ     -24.6702

 Total job time:  0.96s(wall), 0.96s(cpu)
        *  Thank you very much for using Q-Chem.  Have a nice day.  *
