 Q-Chem 4.4, Q-Chem, Inc., Pleasanton, CA (2016)
 Q-Chem 4.4.2 for Intel X86 Linux

User input:
--------------------------------------------------------------
$molecule
0  1
C     0.670518    0.000000    0.000000
H     1.241372    0.927754    0.000000
H     1.241372   -0.927754    0.000000
C    -0.670518    0.000000    0.000000
H    -1.241372   -0.927754    0.000000
H    -1.241372    0.927754    0.000000
C     0.670518    0.000000    8.500000
H     1.241372    0.927754    8.500000
H     1.241372   -0.927754    8.500000
C    -0.670518    0.000000    8.500000
H    -1.241372   -0.927754    8.500000
H    -1.241372    0.927754    8.500000
$end

$rem
basis 		6-31G
EXCHANGE          B3LYP
CORRELATION		 NONE
CIS_N_ROOTS       10
CIS_SINGLETS      true
CIS_TRIPLETS      false
STS_FED           true
STS_DONOR         1-6
STS_ACCEPTOR      7-12
$end

--------------------------------------------------------------

             Standard Nuclear Orientation (Angstroms)
    I     Atom           X                Y                Z
 ----------------------------------------------------------------
    1      C      -4.2500000000    -0.6705180000     0.0000000000
    2      H      -4.2500000000    -1.2413720000    -0.9277540000
    3      H      -4.2500000000    -1.2413720000     0.9277540000
    4      C      -4.2500000000     0.6705180000     0.0000000000
    5      H      -4.2500000000     1.2413720000     0.9277540000
    6      H      -4.2500000000     1.2413720000    -0.9277540000
    7      C       4.2500000000    -0.6705180000     0.0000000000
    8      H       4.2500000000    -1.2413720000    -0.9277540000
    9      H       4.2500000000    -1.2413720000     0.9277540000
   10      C       4.2500000000     0.6705180000     0.0000000000
   11      H       4.2500000000     1.2413720000     0.9277540000
   12      H       4.2500000000     1.2413720000    -0.9277540000
 ----------------------------------------------------------------

    8    -157.1438854974      6.00E-09 Convergence criterion met
 Total energy in the final basis set = -157.1438854974

         TDDFT/TDA Excitation Energies
 ---------------------------------------------------

 Excited state   1: excitation energy (eV) =    7.3559
    Total energy for state   1:   -156.873562511086
    Multiplicity: Singlet
    Trans. Mom.:  0.0000 X   0.0000 Y   0.0000 Z
    Strength   :     0.0000000000
    D( 16) --> V(  1) amplitude =  0.7056
    D( 16) --> V(  2) amplitude =  0.7086

 Excited state   2: excitation energy (eV) =    7.3559
    Total energy for state   2:   -156.873562510929
    Multiplicity: Singlet
    Trans. Mom.:  0.0000 X   0.0000 Y   0.0000 Z
    Strength   :     0.0000000000
    D( 15) --> V(  1) amplitude =  0.7086
    D( 15) --> V(  2) amplitude = -0.7056

 Excited state   3: excitation energy (eV) =    8.4323
    Total energy for state   3:   -156.834005254131
    Multiplicity: Singlet
    Trans. Mom.:  0.0000 X   0.0000 Y   0.0000 Z
    Strength   :     0.0000000000
    D( 13) --> V(  1) amplitude = -0.7022
    D( 14) --> V(  2) amplitude =  0.7022

 Excited state   4: excitation energy (eV) =    8.4327
    Total energy for state   4:   -156.833988410180
    Multiplicity: Singlet
    Trans. Mom.:  0.0000 X   0.0000 Y  -0.0011 Z
    Strength   :     0.0000002357
    D( 13) --> V(  2) amplitude = -0.7022
    D( 14) --> V(  1) amplitude =  0.7022

 Excited state   5: excitation energy (eV) =    9.1078
    Total energy for state   5:   -156.809180005184
    Multiplicity: Singlet
    Trans. Mom.:  0.0000 X   0.0000 Y   0.0000 Z
    Strength   :     0.0000000000
    D( 15) --> V(  1) amplitude =  0.4783
    D( 15) --> V(  2) amplitude =  0.4804
    D( 16) --> V(  1) amplitude =  0.4804
    D( 16) --> V(  2) amplitude = -0.4783

 Excited state   6: excitation energy (eV) =    9.1447
    Total energy for state   6:   -156.807824380509
    Multiplicity: Singlet
    Trans. Mom.:  0.0000 X   2.2809 Y   0.0000 Z
    Strength   :     1.1656006436
    D( 15) --> V(  1) amplitude =  0.4780
    D( 15) --> V(  2) amplitude =  0.4800
    D( 16) --> V(  1) amplitude = -0.4800
    D( 16) --> V(  2) amplitude =  0.4780

 Excited state   7: excitation energy (eV) =    9.2604
    Total energy for state   7:   -156.803570628138
    Multiplicity: Singlet
    Trans. Mom.:  0.0101 X   0.0000 Y   0.0000 Z
    Strength   :     0.0000233621
    D( 15) --> V(  3) amplitude = -0.4980
    D( 15) --> V(  4) amplitude =  0.4978
    D( 16) --> V(  3) amplitude =  0.4979
    D( 16) --> V(  4) amplitude =  0.4981

 Excited state   8: excitation energy (eV) =    9.2605
    Total energy for state   8:   -156.803569060809
    Multiplicity: Singlet
    Trans. Mom.:  0.0000 X   0.0000 Y   0.0000 Z
    Strength   :     0.0000000000
    D( 15) --> V(  3) amplitude =  0.4981
    D( 15) --> V(  4) amplitude = -0.4979
    D( 16) --> V(  3) amplitude =  0.4978
    D( 16) --> V(  4) amplitude =  0.4980

 Excited state   9: excitation energy (eV) =    9.5854
    Total energy for state   9:   -156.791629703112
    Multiplicity: Singlet
    Trans. Mom.:  0.0000 X   0.0000 Y   0.0000 Z
    Strength   :     0.0000000000
    D( 15) --> V(  5) amplitude = -0.4950
    D( 15) --> V(  6) amplitude =  0.4974
    D( 16) --> V(  5) amplitude =  0.4982
    D( 16) --> V(  6) amplitude =  0.4958

 Excited state  10: excitation energy (eV) =    9.5854
    Total energy for state  10:   -156.791629591037
    Multiplicity: Singlet
    Trans. Mom.:  0.0000 X   0.0000 Y   0.0002 Z
    Strength   :     0.0000000064
    D( 15) --> V(  5) amplitude = -0.4958
    D( 15) --> V(  6) amplitude =  0.4982
    D( 16) --> V(  5) amplitude = -0.4974
    D( 16) --> V(  6) amplitude = -0.4950

 Excited state  11: excitation energy (eV) =    9.7267
    Total energy for state  11:   -156.786435318866
    Multiplicity: Singlet
    Trans. Mom.:  0.0000 X   0.0000 Y   0.0000 Z
    Strength   :     0.0000000000
    D( 13) --> V(  1) amplitude = -0.4971
    D( 13) --> V(  2) amplitude =  0.5003
    D( 14) --> V(  1) amplitude =  0.5049
    D( 14) --> V(  2) amplitude = -0.4976

 Excited state  12: excitation energy (eV) =    9.7267
    Total energy for state  12:   -156.786435318862
    Multiplicity: Singlet
    Trans. Mom.:  0.0000 X   0.0000 Y   0.0000 Z
    Strength   :     0.0000000000
    D( 13) --> V(  1) amplitude =  0.5028
    D( 13) --> V(  2) amplitude =  0.4997
    D( 14) --> V(  1) amplitude =  0.4950
    D( 14) --> V(  2) amplitude =  0.5024

 ---------------------------------------------------

             Orbital Energies (a.u.) and Symmetries
 --------------------------------------------------------------
 Warning : Irrep of orbital(   1) could not be determined
 Warning : Irrep of orbital(   2) could not be determined
 Warning : Irrep of orbital(   3) could not be determined
 Warning : Irrep of orbital(   4) could not be determined
 Warning : Irrep of orbital(   5) could not be determined
 Warning : Irrep of orbital(   6) could not be determined
 Warning : Irrep of orbital(  15) could not be determined
 Warning : Irrep of orbital(  16) could not be determined
 Warning : Irrep of orbital(  23) could not be determined
 Warning : Irrep of orbital(  24) could not be determined

 Alpha MOs, Restricted
 -- Occupied --
-10.181 -10.181 -10.181 -10.181  -0.757  -0.757  -0.578  -0.578
  0 xxx   0 xxx   0 xxx   0 xxx   0 xxx   0 xxx   1 B2u   1 B1g
 -0.467  -0.467  -0.418  -0.418  -0.354  -0.354  -0.267  -0.267
  1 B1u   1 B2g   1 Ag    1 B3u   1 B3g   1 Au    0 xxx   0 xxx

 Beta MOs, Restricted
 -- Occupied --
-10.181 -10.181 -10.181 -10.181  -0.757  -0.757  -0.578  -0.578
  0 xxx   0 xxx   0 xxx   0 xxx   0 xxx   0 xxx   1 B2u   1 B1g
 -0.467  -0.467  -0.418  -0.418  -0.354  -0.354  -0.267  -0.267
  1 B1u   1 B2g   1 Ag    1 B3u   1 B3g   1 Au    0 xxx   0 xxx

          Ground-State Mulliken Net Atomic Charges

     Atom                 Charge (a.u.)
  ----------------------------------------
      1 C                    -0.257176
      2 H                     0.128588
      3 H                     0.128588
      4 C                    -0.257176
      5 H                     0.128588
      6 H                     0.128588
      7 C                    -0.257176
      8 H                     0.128588
      9 H                     0.128588
     10 C                    -0.257176
     11 H                     0.128588
     12 H                     0.128588
  ----------------------------------------
  Sum of atomic charges =     0.000000

                    Cartesian Multipole Moments
 -----------------------------------------------------------------
    Charge (ESU x 10^10)
                 0.0000
    Dipole Moment (Debye)
         X       0.0000      Y       0.0000      Z       0.0000
       Tot       0.0000
    Quadrupole Moments (Debye-Ang)
        XX     -30.2864     XY       0.0000     YY     -24.2033
        XZ       0.0000     YZ       0.0000     ZZ     -24.3261

 Total job time:  3.08s(wall), 3.06s(cpu)
        *  Thank you very much for using Q-Chem.  Have a nice day.  *
