 Q-Chem 4.4, Q-Chem, Inc., Pleasanton, CA (2016)
 Q-Chem 4.4.2 for Intel X86 Linux

User input:
--------------------------------------------------------------
$molecule
0  1
C     0.670518    0.000000    0.000000
H     1.241372    0.927754    0.000000
H     1.241372   -0.927754    0.000000
C    -0.670518    0.000000    0.000000
H    -1.241372   -0.927754    0.000000
H    -1.241372    0.927754    0.000000
C     0.774635    0.000000    8.500000
H     1.323105    0.936763    8.500000
H     1.323105   -0.936763    8.500000
C    -0.774635    0.000000    8.500000
H    -1.323105   -0.936763    8.500000
H    -1.323105    0.936763    8.500000
$end

$rem
basis 		6-31G
METHOD 			CIS
CIS_N_ROOTS       10
CIS_SINGLETS      true
CIS_TRIPLETS      false
STS_FED           true
STS_DONOR         1-6
STS_ACCEPTOR      7-12
POP_MULLIKEN      -1
STS_MOM			 true
$end

--------------------------------------------------------------

             Standard Nuclear Orientation (Angstroms)
    I     Atom           X                Y                Z
 ----------------------------------------------------------------
    1      C      -0.6705180000     0.0000000000    -4.2500000000
    2      H      -1.2413720000    -0.9277540000    -4.2500000000
    3      H      -1.2413720000     0.9277540000    -4.2500000000
    4      C       0.6705180000     0.0000000000    -4.2500000000
    5      H       1.2413720000     0.9277540000    -4.2500000000
    6      H       1.2413720000    -0.9277540000    -4.2500000000
    7      C      -0.7746350000     0.0000000000     4.2500000000
    8      H      -1.3231050000    -0.9367630000     4.2500000000
    9      H      -1.3231050000     0.9367630000     4.2500000000
   10      C       0.7746350000     0.0000000000     4.2500000000
   11      H       1.3231050000     0.9367630000     4.2500000000
   12      H       1.3231050000    -0.9367630000     4.2500000000
 ----------------------------------------------------------------

   10    -155.9610562653      1.93E-09 Convergence criterion met
 Total energy in the final basis set = -155.9610562653

               CIS Excitation Energies
 ---------------------------------------------------

 Excited state   1: excitation energy (eV) =    6.6356
    Total energy for state   1:   -155.717203969601
    Multiplicity: Singlet
    Trans. Mom.: -1.7054 X   0.0000 Y   0.0000 Z
    Strength   :     0.4727957803
    D( 12) --> V( 11) amplitude = -0.2138
    D( 16) --> V(  1) amplitude =  0.9552

 Excited state   2: excitation energy (eV) =    7.9804
    Total energy for state   2:   -155.667781592539
    Multiplicity: Singlet
    Trans. Mom.:  0.0047 X   0.0000 Y   0.0000 Z
    Strength   :     0.0000042628
    D( 12) --> V(  1) amplitude =  0.9850

 Excited state   3: excitation energy (eV) =    8.6219
    Total energy for state   3:   -155.644208609617
    Multiplicity: Singlet
    Trans. Mom.:  1.7654 X   0.0000 Y   0.0000 Z
    Strength   :     0.6583230810
    D( 15) --> V(  2) amplitude =  0.9693

 Excited state   4: excitation energy (eV) =    9.0887
    Total energy for state   4:   -155.627052869907
    Multiplicity: Singlet
    Trans. Mom.:  0.0000 X  -0.0007 Y   0.0000 Z
    Strength   :     0.0000000978
    D( 13) --> V(  1) amplitude =  0.9606
    D( 16) --> V(  7) amplitude =  0.2587

 Excited state   5: excitation energy (eV) =    9.1583
    Total energy for state   5:   -155.624496088019
    Multiplicity: Singlet
    Trans. Mom.:  0.0000 X   0.0000 Y   0.0207 Z
    Strength   :     0.0000962285
    D( 16) --> V(  3) amplitude =  0.9969

 Excited state   6: excitation energy (eV) =    9.7909
    Total energy for state   6:   -155.601247249741
    Multiplicity: Singlet
    Trans. Mom.:  0.0000 X   0.0003 Y   0.0000 Z
    Strength   :     0.0000000226
    D( 13) --> V(  1) amplitude = -0.2585
    D( 16) --> V(  7) amplitude =  0.9633

 Excited state   7: excitation energy (eV) =    9.7914
    Total energy for state   7:   -155.601230172820
    Multiplicity: Singlet
    Trans. Mom.:  0.0009 X   0.0000 Y   0.0000 Z
    Strength   :     0.0000001788
    D( 16) --> V(  5) amplitude =  0.9501
    D( 16) --> V( 11) amplitude =  0.2840

 Excited state   8: excitation energy (eV) =   11.8652
    Total energy for state   8:   -155.525016393290
    Multiplicity: Singlet
    Trans. Mom.:  0.0000 X   0.0000 Y   0.0000 Z
    Strength   :     0.0000000000
    D( 15) --> V(  1) amplitude =  1.0000

 Excited state   9: excitation energy (eV) =   11.8989
    Total energy for state   9:   -155.523780316378
    Multiplicity: Singlet
    Trans. Mom.:  0.0002 X   0.0000 Y   0.0000 Z
    Strength   :     0.0000000126
    D( 16) --> V(  5) amplitude = -0.2924
    D( 16) --> V( 11) amplitude =  0.9432

 Excited state  10: excitation energy (eV) =   11.9507
    Total energy for state  10:   -155.521876211331
    Multiplicity: Singlet
    Trans. Mom.:  0.0000 X   0.0000 Y   0.0000 Z
    Strength   :     0.0000000000
    D( 16) --> V(  2) amplitude =  1.0000

 ---------------------------------------------------

             Orbital Energies (a.u.) and Symmetries
 --------------------------------------------------------------

 Alpha MOs, Restricted
 -- Occupied --
-11.264 -11.263 -11.235 -11.233  -1.030  -0.976  -0.809  -0.787
  1 A1    1 B1    2 A1    2 B1    3 A1    4 A1    3 B1    4 B1
 -0.637  -0.623  -0.581  -0.538  -0.531  -0.498  -0.370  -0.328
  1 B2    2 B2    5 A1    6 A1    1 A2    2 A2    7 A1    8 A1

 Beta MOs, Restricted
 -- Occupied --
-11.264 -11.263 -11.235 -11.233  -1.030  -0.976  -0.809  -0.787
  1 A1    1 B1    2 A1    2 B1    3 A1    4 A1    3 B1    4 B1
 -0.637  -0.623  -0.581  -0.538  -0.531  -0.498  -0.370  -0.328
  1 B2    2 B2    5 A1    6 A1    1 A2    2 A2    7 A1    8 A1

          Ground-State Mulliken Net Atomic Charges

     Atom                 Charge (a.u.)
  ----------------------------------------
      1 C                    -0.328514
      2 H                     0.164257
      3 H                     0.164257
      4 C                    -0.328514
      5 H                     0.164257
      6 H                     0.164257
      7 C                    -0.337719
      8 H                     0.168860
      9 H                     0.168860
     10 C                    -0.337719
     11 H                     0.168860
     12 H                     0.168860
  ----------------------------------------
  Sum of atomic charges =     0.000000

                    Cartesian Multipole Moments
 -----------------------------------------------------------------
    Charge (ESU x 10^10)
                 0.0000
    Dipole Moment (Debye)
         X       0.0000      Y       0.0000      Z       0.0005
       Tot       0.0005
    Quadrupole Moments (Debye-Ang)
        XX     -23.8822     XY       0.0000     YY     -24.6918
        XZ       0.0000     YZ       0.0000     ZZ     -31.9582

 Total job time:  0.47s(wall), 0.47s(cpu)
        *  Thank you very much for using Q-Chem.  Have a nice day.  *
