 Q-Chem 4.4, Q-Chem, Inc., Pleasanton, CA (2016)
 Q-Chem 4.4.2 for Intel X86 Linux

User input:
--------------------------------------------------------------
$molecule
0  1
C     0.670518    0.000000    0.000000
H     1.241372    0.927754    0.000000
H     1.241372   -0.927754    0.000000
C    -0.670518    0.000000    0.000000
H    -1.241372   -0.927754    0.000000
H    -1.241372    0.927754    0.000000
C     0.774635    0.000000    3.500000
H     1.323105    0.936763    3.500000
H     1.323105   -0.936763    3.500000
C    -0.774635    0.000000    3.500000
H    -1.323105   -0.936763    3.500000
H    -1.323105    0.936763    3.500000
$end

$rem
basis 		6-31G
METHOD 			CIS
CIS_N_ROOTS       10
CIS_SINGLETS      true
CIS_TRIPLETS      false
STS_FED           true
STS_DONOR         1-6
STS_ACCEPTOR      7-12
POP_MULLIKEN      -1
STS_MOM			 true
$end

--------------------------------------------------------------

             Standard Nuclear Orientation (Angstroms)
    I     Atom           X                Y                Z
 ----------------------------------------------------------------
    1      C      -0.6705180000     0.0000000000    -1.7500000000
    2      H      -1.2413720000    -0.9277540000    -1.7500000000
    3      H      -1.2413720000     0.9277540000    -1.7500000000
    4      C       0.6705180000     0.0000000000    -1.7500000000
    5      H       1.2413720000     0.9277540000    -1.7500000000
    6      H       1.2413720000    -0.9277540000    -1.7500000000
    7      C      -0.7746350000     0.0000000000     1.7500000000
    8      H      -1.3231050000    -0.9367630000     1.7500000000
    9      H      -1.3231050000     0.9367630000     1.7500000000
   10      C       0.7746350000     0.0000000000     1.7500000000
   11      H       1.3231050000     0.9367630000     1.7500000000
   12      H       1.3231050000    -0.9367630000     1.7500000000
 ----------------------------------------------------------------

   10    -155.9557661686      3.58E-09 Convergence criterion met
 Total energy in the final basis set = -155.9557661686

               CIS Excitation Energies
 ---------------------------------------------------

 Excited state   1: excitation energy (eV) =    6.2200
    Total energy for state   1:   -155.727184849514
    Multiplicity: Singlet
    Trans. Mom.:  1.0995 X   0.0000 Y   0.0000 Z
    Strength   :     0.1842270875
    D( 16) --> V(  1) amplitude =  0.9392

 Excited state   2: excitation energy (eV) =    7.9651
    Total energy for state   2:   -155.663055844982
    Multiplicity: Singlet
    Trans. Mom.:  0.1578 X   0.0000 Y   0.0000 Z
    Strength   :     0.0048596723
    D( 12) --> V(  1) amplitude =  0.9278
    D( 12) --> V(  2) amplitude =  0.3189

 Excited state   3: excitation energy (eV) =    8.3207
    Total energy for state   3:   -155.649986238891
    Multiplicity: Singlet
    Trans. Mom.: -1.9528 X   0.0000 Y   0.0000 Z
    Strength   :     0.7773570696
    D( 15) --> V(  1) amplitude =  0.6646
    D( 15) --> V(  2) amplitude = -0.4073
    D( 16) --> V(  2) amplitude = -0.5667

 Excited state   4: excitation energy (eV) =    8.9407
    Total energy for state   4:   -155.627200774989
    Multiplicity: Singlet
    Trans. Mom.:  0.0000 X   0.0000 Y   0.0426 Z
    Strength   :     0.0003975904
    D( 15) --> V(  4) amplitude =  0.2138
    D( 16) --> V(  3) amplitude =  0.8236
    D( 16) --> V(  4) amplitude = -0.4918

 Excited state   5: excitation energy (eV) =    9.0687
    Total energy for state   5:   -155.622496931321
    Multiplicity: Singlet
    Trans. Mom.:  0.0000 X  -0.0105 Y   0.0000 Z
    Strength   :     0.0000245541
    D( 13) --> V(  1) amplitude = -0.8827
    D( 13) --> V(  2) amplitude = -0.2867
    D( 16) --> V(  7) amplitude = -0.2539

 Excited state   6: excitation energy (eV) =    9.3461
    Total energy for state   6:   -155.612304326574
    Multiplicity: Singlet
    Trans. Mom.:  0.1572 X   0.0000 Y   0.0000 Z
    Strength   :     0.0056556062
    D( 15) --> V(  1) amplitude =  0.6418
    D( 16) --> V(  2) amplitude =  0.7055
    D( 16) --> V(  5) amplitude = -0.2349

 Excited state   7: excitation energy (eV) =    9.4119
    Total energy for state   7:   -155.609884183608
    Multiplicity: Singlet
    Trans. Mom.:  0.0000 X   0.0088 Y   0.0000 Z
    Strength   :     0.0000179067
    D( 14) --> V(  1) amplitude =  0.4920
    D( 14) --> V(  2) amplitude = -0.8072

 Excited state   8: excitation energy (eV) =    9.6054
    Total energy for state   8:   -155.602773095475
    Multiplicity: Singlet
    Trans. Mom.:  0.0000 X   0.0038 Y   0.0000 Z
    Strength   :     0.0000033094
    D( 13) --> V(  1) amplitude =  0.3148
    D( 15) --> V(  7) amplitude =  0.2677
    D( 16) --> V(  6) amplitude =  0.5881
    D( 16) --> V(  7) amplitude = -0.6719

 Excited state   9: excitation energy (eV) =    9.6106
    Total energy for state   9:   -155.602582923994
    Multiplicity: Singlet
    Trans. Mom.:  0.1799 X   0.0000 Y   0.0000 Z
    Strength   :     0.0076242715
    D( 15) --> V(  1) amplitude =  0.2667
    D( 15) --> V(  2) amplitude =  0.2501
    D( 16) --> V(  5) amplitude =  0.7933
    D( 16) --> V(  8) amplitude = -0.2861
    D( 16) --> V( 11) amplitude = -0.2323

 Excited state  10: excitation energy (eV) =    9.8674
    Total energy for state  10:   -155.593146639472
    Multiplicity: Singlet
    Trans. Mom.:  0.0000 X   0.0000 Y   0.0320 Z
    Strength   :     0.0002482357
    D( 15) --> V(  3) amplitude =  0.6081
    D( 15) --> V(  4) amplitude =  0.5252
    D( 16) --> V(  3) amplitude =  0.2937
    D( 16) --> V(  4) amplitude =  0.5110

 ---------------------------------------------------

             Orbital Energies (a.u.) and Symmetries
 --------------------------------------------------------------

 Alpha MOs, Restricted
 -- Occupied --
-11.259 -11.258 -11.228 -11.226  -1.024  -0.971  -0.805  -0.781
  1 A1    1 B1    2 A1    2 B1    3 A1    4 A1    3 B1    4 B1
 -0.632  -0.619  -0.575  -0.534  -0.527  -0.493  -0.372  -0.313
  1 B2    2 B2    5 A1    6 A1    1 A2    2 A2    7 A1    8 A1

 Beta MOs, Restricted
 -- Occupied --
-11.259 -11.258 -11.228 -11.226  -1.024  -0.971  -0.805  -0.781
  1 A1    1 B1    2 A1    2 B1    3 A1    4 A1    3 B1    4 B1
 -0.632  -0.619  -0.575  -0.534  -0.527  -0.493  -0.372  -0.313
  1 B2    2 B2    5 A1    6 A1    1 A2    2 A2    7 A1    8 A1

          Ground-State Mulliken Net Atomic Charges

     Atom                 Charge (a.u.)
  ----------------------------------------
      1 C                    -0.315440
      2 H                     0.157410
      3 H                     0.157410
      4 C                    -0.315440
      5 H                     0.157410
      6 H                     0.157410
      7 C                    -0.327056
      8 H                     0.163838
      9 H                     0.163838
     10 C                    -0.327056
     11 H                     0.163838
     12 H                     0.163838
  ----------------------------------------
  Sum of atomic charges =     0.000000

                    Cartesian Multipole Moments
 -----------------------------------------------------------------
    Charge (ESU x 10^10)
                 0.0000
    Dipole Moment (Debye)
         X       0.0000      Y       0.0000      Z       0.0308
       Tot       0.0308
    Quadrupole Moments (Debye-Ang)
        XX     -24.0711     XY       0.0000     YY     -24.8015
        XZ       0.0000     YZ       0.0000     ZZ     -32.3515

 Total job time:  1.17s(wall), 1.17s(cpu)
        *  Thank you very much for using Q-Chem.  Have a nice day.  *
